+ 1 4 5 cbr 512 ------- 0 4.0 8.0 0 0
- 1 4 5 cbr 512 ------- 0 4.0 8.0 0 0
r 1.012048 4 5 cbr 512 ------- 0 4.0 8.0 0 0
+ 1.012048 5 6 cbr 512 ------- 0 4.0 8.0 0 0
- 1.012048 5 6 cbr 512 ------- 0 4.0 8.0 0 0
r 1.024096 5 6 cbr 512 ------- 0 4.0 8.0 0 0
+ 1.024096 6 7 cbr 512 ------- 0 4.0 8.0 0 0
- 1.024096 6 7 cbr 512 ------- 0 4.0 8.0 0 0
r 1.036144 6 7 cbr 512 ------- 0 4.0 8.0 0 0
+ 1.036144 7 8 cbr 512 ------- 0 4.0 8.0 0 0
- 1.036144 7 8 cbr 512 ------- 0 4.0 8.0 0 0
r 1.048192 7 8 cbr 512 ------- 0 4.0 8.0 0 0
+ 1.2 4 5 cbr 512 ------- 0 4.0 8.0 1 1
- 1.2 4 5 cbr 512 ------- 0 4.0 8.0 1 1
r 1.212048 4 5 cbr 512 ------- 0 4.0 8.0 1 1
+ 1.212048 5 6 cbr 512 ------- 0 4.0 8.0 1 1
- 1.212048 5 6 cbr 512 ------- 0 4.0 8.0 1 1
r 1.224096 5 6 cbr 512 ------- 0 4.0 8.0 1 1
+ 1.224096 6 7 cbr 512 ------- 0 4.0 8.0 1 1
- 1.224096 6 7 cbr 512 ------- 0 4.0 8.0 1 1
r 1.236144 6 7 cbr 512 ------- 0 4.0 8.0 1 1
+ 1.236144 7 8 cbr 512 ------- 0 4.0 8.0 1 1
- 1.236144 7 8 cbr 512 ------- 0 4.0 8.0 1 1
r 1.248192 7 8 cbr 512 ------- 0 4.0 8.0 1 1
+ 1.4 4 5 cbr 512 ------- 0 4.0 8.0 2 2
- 1.4 4 5 cbr 512 ------- 0 4.0 8.0 2 2
r 1.412048 4 5 cbr 512 ------- 0 4.0 8.0 2 2
+ 1.412048 5 6 cbr 512 ------- 0 4.0 8.0 2 2
- 1.412048 5 6 cbr 512 ------- 0 4.0 8.0 2 2
r 1.424096 5 6 cbr 512 ------- 0 4.0 8.0 2 2
+ 1.424096 6 7 cbr 512 ------- 0 4.0 8.0 2 2
- 1.424096 6 7 cbr 512 ------- 0 4.0 8.0 2 2
r 1.436144 6 7 cbr 512 ------- 0 4.0 8.0 2 2
+ 1.436144 7 8 cbr 512 ------- 0 4.0 8.0 2 2
- 1.436144 7 8 cbr 512 ------- 0 4.0 8.0 2 2
r 1.448192 7 8 cbr 512 ------- 0 4.0 8.0 2 2
+ 1.6 4 5 cbr 512 ------- 0 4.0 8.0 3 3
- 1.6 4 5 cbr 512 ------- 0 4.0 8.0 3 3
r 1.612048 4 5 cbr 512 ------- 0 4.0 8.0 3 3
+ 1.612048 5 6 cbr 512 ------- 0 4.0 8.0 3 3
- 1.612048 5 6 cbr 512 ------- 0 4.0 8.0 3 3
r 1.624096 5 6 cbr 512 ------- 0 4.0 8.0 3 3
+ 1.624096 6 7 cbr 512 ------- 0 4.0 8.0 3 3
- 1.624096 6 7 cbr 512 ------- 0 4.0 8.0 3 3
r 1.636144 6 7 cbr 512 ------- 0 4.0 8.0 3 3
+ 1.636144 7 8 cbr 512 ------- 0 4.0 8.0 3 3
- 1.636144 7 8 cbr 512 ------- 0 4.0 8.0 3 3
r 1.648192 7 8 cbr 512 ------- 0 4.0 8.0 3 3
+ 1.8 4 5 cbr 512 ------- 0 4.0 8.0 4 4
- 1.8 4 5 cbr 512 ------- 0 4.0 8.0 4 4
r 1.812048 4 5 cbr 512 ------- 0 4.0 8.0 4 4
+ 1.812048 5 6 cbr 512 ------- 0 4.0 8.0 4 4
- 1.812048 5 6 cbr 512 ------- 0 4.0 8.0 4 4
r 1.824096 5 6 cbr 512 ------- 0 4.0 8.0 4 4
+ 1.824096 6 7 cbr 512 ------- 0 4.0 8.0 4 4
- 1.824096 6 7 cbr 512 ------- 0 4.0 8.0 4 4
r 1.836144 6 7 cbr 512 ------- 0 4.0 8.0 4 4
+ 1.836144 7 8 cbr 512 ------- 0 4.0 8.0 4 4
- 1.836144 7 8 cbr 512 ------- 0 4.0 8.0 4 4
r 1.848192 7 8 cbr 512 ------- 0 4.0 8.0 4 4
+ 2 4 5 cbr 512 ------- 0 4.0 8.0 5 5
- 2 4 5 cbr 512 ------- 0 4.0 8.0 5 5
r 2.012048 4 5 cbr 512 ------- 0 4.0 8.0 5 5
+ 2.012048 5 6 cbr 512 ------- 0 4.0 8.0 5 5
- 2.012048 5 6 cbr 512 ------- 0 4.0 8.0 5 5
r 2.024096 5 6 cbr 512 ------- 0 4.0 8.0 5 5
+ 2.024096 6 7 cbr 512 ------- 0 4.0 8.0 5 5
- 2.024096 6 7 cbr 512 ------- 0 4.0 8.0 5 5
r 2.036144 6 7 cbr 512 ------- 0 4.0 8.0 5 5
+ 2.036144 7 8 cbr 512 ------- 0 4.0 8.0 5 5
- 2.036144 7 8 cbr 512 ------- 0 4.0 8.0 5 5
r 2.048192 7 8 cbr 512 ------- 0 4.0 8.0 5 5
+ 2.2 4 5 cbr 512 ------- 0 4.0 8.0 6 6
- 2.2 4 5 cbr 512 ------- 0 4.0 8.0 6 6
r 2.212048 4 5 cbr 512 ------- 0 4.0 8.0 6 6
+ 2.212048 5 6 cbr 512 ------- 0 4.0 8.0 6 6
- 2.212048 5 6 cbr 512 ------- 0 4.0 8.0 6 6
r 2.224096 5 6 cbr 512 ------- 0 4.0 8.0 6 6
+ 2.224096 6 7 cbr 512 ------- 0 4.0 8.0 6 6
- 2.224096 6 7 cbr 512 ------- 0 4.0 8.0 6 6
r 2.236144 6 7 cbr 512 ------- 0 4.0 8.0 6 6
+ 2.236144 7 8 cbr 512 ------- 0 4.0 8.0 6 6
- 2.236144 7 8 cbr 512 ------- 0 4.0 8.0 6 6
r 2.248192 7 8 cbr 512 ------- 0 4.0 8.0 6 6
+ 2.4 4 5 cbr 512 ------- 0 4.0 8.0 7 7
- 2.4 4 5 cbr 512 ------- 0 4.0 8.0 7 7
r 2.412048 4 5 cbr 512 ------- 0 4.0 8.0 7 7
+ 2.412048 5 6 cbr 512 ------- 0 4.0 8.0 7 7
- 2.412048 5 6 cbr 512 ------- 0 4.0 8.0 7 7
r 2.424096 5 6 cbr 512 ------- 0 4.0 8.0 7 7
+ 2.424096 6 7 cbr 512 ------- 0 4.0 8.0 7 7
- 2.424096 6 7 cbr 512 ------- 0 4.0 8.0 7 7
r 2.436144 6 7 cbr 512 ------- 0 4.0 8.0 7 7
+ 2.436144 7 8 cbr 512 ------- 0 4.0 8.0 7 7
- 2.436144 7 8 cbr 512 ------- 0 4.0 8.0 7 7
r 2.448192 7 8 cbr 512 ------- 0 4.0 8.0 7 7
+ 2.6 4 5 cbr 512 ------- 0 4.0 8.0 8 8
- 2.6 4 5 cbr 512 ------- 0 4.0 8.0 8 8
r 2.612048 4 5 cbr 512 ------- 0 4.0 8.0 8 8
+ 2.612048 5 6 cbr 512 ------- 0 4.0 8.0 8 8
- 2.612048 5 6 cbr 512 ------- 0 4.0 8.0 8 8
r 2.624096 5 6 cbr 512 ------- 0 4.0 8.0 8 8
+ 2.624096 6 7 cbr 512 ------- 0 4.0 8.0 8 8
- 2.624096 6 7 cbr 512 ------- 0 4.0 8.0 8 8
r 2.636144 6 7 cbr 512 ------- 0 4.0 8.0 8 8
+ 2.636144 7 8 cbr 512 ------- 0 4.0 8.0 8 8
- 2.636144 7 8 cbr 512 ------- 0 4.0 8.0 8 8
r 2.648192 7 8 cbr 512 ------- 0 4.0 8.0 8 8
+ 2.8 4 5 cbr 512 ------- 0 4.0 8.0 9 9
- 2.8 4 5 cbr 512 ------- 0 4.0 8.0 9 9
r 2.812048 4 5 cbr 512 ------- 0 4.0 8.0 9 9
+ 2.812048 5 6 cbr 512 ------- 0 4.0 8.0 9 9
- 2.812048 5 6 cbr 512 ------- 0 4.0 8.0 9 9
r 2.824096 5 6 cbr 512 ------- 0 4.0 8.0 9 9
+ 2.824096 6 7 cbr 512 ------- 0 4.0 8.0 9 9
- 2.824096 6 7 cbr 512 ------- 0 4.0 8.0 9 9
r 2.836144 6 7 cbr 512 ------- 0 4.0 8.0 9 9
+ 2.836144 7 8 cbr 512 ------- 0 4.0 8.0 9 9
- 2.836144 7 8 cbr 512 ------- 0 4.0 8.0 9 9
r 2.848192 7 8 cbr 512 ------- 0 4.0 8.0 9 9
+ 3 4 5 cbr 512 ------- 0 4.0 8.0 10 10
- 3 4 5 cbr 512 ------- 0 4.0 8.0 10 10
r 3.012048 4 5 cbr 512 ------- 0 4.0 8.0 10 10
+ 3.012048 5 6 cbr 512 ------- 0 4.0 8.0 10 10
- 3.012048 5 6 cbr 512 ------- 0 4.0 8.0 10 10
r 3.024096 5 6 cbr 512 ------- 0 4.0 8.0 10 10
+ 3.024096 6 7 cbr 512 ------- 0 4.0 8.0 10 10
- 3.024096 6 7 cbr 512 ------- 0 4.0 8.0 10 10
r 3.036144 6 7 cbr 512 ------- 0 4.0 8.0 10 10
+ 3.036144 7 8 cbr 512 ------- 0 4.0 8.0 10 10
- 3.036144 7 8 cbr 512 ------- 0 4.0 8.0 10 10
r 3.048192 7 8 cbr 512 ------- 0 4.0 8.0 10 10
+ 3.2 4 5 cbr 512 ------- 0 4.0 8.0 11 11
- 3.2 4 5 cbr 512 ------- 0 4.0 8.0 11 11
r 3.212048 4 5 cbr 512 ------- 0 4.0 8.0 11 11
+ 3.212048 5 6 cbr 512 ------- 0 4.0 8.0 11 11
- 3.212048 5 6 cbr 512 ------- 0 4.0 8.0 11 11
r 3.224096 5 6 cbr 512 ------- 0 4.0 8.0 11 11
+ 3.224096 6 7 cbr 512 ------- 0 4.0 8.0 11 11
- 3.224096 6 7 cbr 512 ------- 0 4.0 8.0 11 11
r 3.236144 6 7 cbr 512 ------- 0 4.0 8.0 11 11
+ 3.236144 7 8 cbr 512 ------- 0 4.0 8.0 11 11
- 3.236144 7 8 cbr 512 ------- 0 4.0 8.0 11 11
r 3.248192 7 8 cbr 512 ------- 0 4.0 8.0 11 11
+ 3.4 4 5 cbr 512 ------- 0 4.0 8.0 12 12
- 3.4 4 5 cbr 512 ------- 0 4.0 8.0 12 12
r 3.412048 4 5 cbr 512 ------- 0 4.0 8.0 12 12
+ 3.412048 5 6 cbr 512 ------- 0 4.0 8.0 12 12
- 3.412048 5 6 cbr 512 ------- 0 4.0 8.0 12 12
r 3.424096 5 6 cbr 512 ------- 0 4.0 8.0 12 12
+ 3.424096 6 7 cbr 512 ------- 0 4.0 8.0 12 12
- 3.424096 6 7 cbr 512 ------- 0 4.0 8.0 12 12
r 3.436144 6 7 cbr 512 ------- 0 4.0 8.0 12 12
+ 3.436144 7 8 cbr 512 ------- 0 4.0 8.0 12 12
- 3.436144 7 8 cbr 512 ------- 0 4.0 8.0 12 12
r 3.448192 7 8 cbr 512 ------- 0 4.0 8.0 12 12
+ 3.6 4 5 cbr 512 ------- 0 4.0 8.0 13 13
- 3.6 4 5 cbr 512 ------- 0 4.0 8.0 13 13
r 3.612048 4 5 cbr 512 ------- 0 4.0 8.0 13 13
+ 3.612048 5 6 cbr 512 ------- 0 4.0 8.0 13 13
- 3.612048 5 6 cbr 512 ------- 0 4.0 8.0 13 13
r 3.624096 5 6 cbr 512 ------- 0 4.0 8.0 13 13
+ 3.624096 6 7 cbr 512 ------- 0 4.0 8.0 13 13
- 3.624096 6 7 cbr 512 ------- 0 4.0 8.0 13 13
r 3.636144 6 7 cbr 512 ------- 0 4.0 8.0 13 13
+ 3.636144 7 8 cbr 512 ------- 0 4.0 8.0 13 13
- 3.636144 7 8 cbr 512 ------- 0 4.0 8.0 13 13
r 3.648192 7 8 cbr 512 ------- 0 4.0 8.0 13 13
+ 3.8 4 5 cbr 512 ------- 0 4.0 8.0 14 14
- 3.8 4 5 cbr 512 ------- 0 4.0 8.0 14 14
r 3.812048 4 5 cbr 512 ------- 0 4.0 8.0 14 14
+ 3.812048 5 6 cbr 512 ------- 0 4.0 8.0 14 14
- 3.812048 5 6 cbr 512 ------- 0 4.0 8.0 14 14
r 3.824096 5 6 cbr 512 ------- 0 4.0 8.0 14 14
+ 3.824096 6 7 cbr 512 ------- 0 4.0 8.0 14 14
- 3.824096 6 7 cbr 512 ------- 0 4.0 8.0 14 14
r 3.836144 6 7 cbr 512 ------- 0 4.0 8.0 14 14
+ 3.836144 7 8 cbr 512 ------- 0 4.0 8.0 14 14
- 3.836144 7 8 cbr 512 ------- 0 4.0 8.0 14 14
r 3.848192 7 8 cbr 512 ------- 0 4.0 8.0 14 14
