+ 1 2 1 cbr 512 ------- 0 2.0 8.0 0 0
- 1 2 1 cbr 512 ------- 0 2.0 8.0 0 0
r 1.012048 2 1 cbr 512 ------- 0 2.0 8.0 0 0
+ 1.012048 1 0 cbr 512 ------- 0 2.0 8.0 0 0
- 1.012048 1 0 cbr 512 ------- 0 2.0 8.0 0 0
r 1.024096 1 0 cbr 512 ------- 0 2.0 8.0 0 0
+ 1.024096 0 3 cbr 512 ------- 0 2.0 8.0 0 0
- 1.024096 0 3 cbr 512 ------- 0 2.0 8.0 0 0
r 1.036144 0 3 cbr 512 ------- 0 2.0 8.0 0 0
+ 1.036144 3 4 cbr 512 ------- 0 2.0 8.0 0 0
- 1.036144 3 4 cbr 512 ------- 0 2.0 8.0 0 0
r 1.048192 3 4 cbr 512 ------- 0 2.0 8.0 0 0
+ 1.048192 4 5 cbr 512 ------- 0 2.0 8.0 0 0
- 1.048192 4 5 cbr 512 ------- 0 2.0 8.0 0 0
r 1.06024 4 5 cbr 512 ------- 0 2.0 8.0 0 0
+ 1.06024 5 6 cbr 512 ------- 0 2.0 8.0 0 0
- 1.06024 5 6 cbr 512 ------- 0 2.0 8.0 0 0
r 1.072288 5 6 cbr 512 ------- 0 2.0 8.0 0 0
+ 1.072288 6 7 cbr 512 ------- 0 2.0 8.0 0 0
- 1.072288 6 7 cbr 512 ------- 0 2.0 8.0 0 0
r 1.084336 6 7 cbr 512 ------- 0 2.0 8.0 0 0
+ 1.084336 7 9 cbr 512 ------- 0 2.0 8.0 0 0
- 1.084336 7 9 cbr 512 ------- 0 2.0 8.0 0 0
r 1.096384 7 9 cbr 512 ------- 0 2.0 8.0 0 0
+ 1.096384 9 8 cbr 512 ------- 0 2.0 8.0 0 0
- 1.096384 9 8 cbr 512 ------- 0 2.0 8.0 0 0
r 1.108432 9 8 cbr 512 ------- 0 2.0 8.0 0 0
+ 1.2 2 1 cbr 512 ------- 0 2.0 8.0 1 1
- 1.2 2 1 cbr 512 ------- 0 2.0 8.0 1 1
r 1.212048 2 1 cbr 512 ------- 0 2.0 8.0 1 1
+ 1.212048 1 0 cbr 512 ------- 0 2.0 8.0 1 1
- 1.212048 1 0 cbr 512 ------- 0 2.0 8.0 1 1
r 1.224096 1 0 cbr 512 ------- 0 2.0 8.0 1 1
+ 1.224096 0 3 cbr 512 ------- 0 2.0 8.0 1 1
- 1.224096 0 3 cbr 512 ------- 0 2.0 8.0 1 1
r 1.236144 0 3 cbr 512 ------- 0 2.0 8.0 1 1
+ 1.236144 3 4 cbr 512 ------- 0 2.0 8.0 1 1
- 1.236144 3 4 cbr 512 ------- 0 2.0 8.0 1 1
r 1.248192 3 4 cbr 512 ------- 0 2.0 8.0 1 1
+ 1.248192 4 5 cbr 512 ------- 0 2.0 8.0 1 1
- 1.248192 4 5 cbr 512 ------- 0 2.0 8.0 1 1
r 1.26024 4 5 cbr 512 ------- 0 2.0 8.0 1 1
+ 1.26024 5 6 cbr 512 ------- 0 2.0 8.0 1 1
- 1.26024 5 6 cbr 512 ------- 0 2.0 8.0 1 1
r 1.272288 5 6 cbr 512 ------- 0 2.0 8.0 1 1
+ 1.272288 6 7 cbr 512 ------- 0 2.0 8.0 1 1
- 1.272288 6 7 cbr 512 ------- 0 2.0 8.0 1 1
r 1.284336 6 7 cbr 512 ------- 0 2.0 8.0 1 1
+ 1.284336 7 9 cbr 512 ------- 0 2.0 8.0 1 1
- 1.284336 7 9 cbr 512 ------- 0 2.0 8.0 1 1
r 1.296384 7 9 cbr 512 ------- 0 2.0 8.0 1 1
+ 1.296384 9 8 cbr 512 ------- 0 2.0 8.0 1 1
- 1.296384 9 8 cbr 512 ------- 0 2.0 8.0 1 1
r 1.308432 9 8 cbr 512 ------- 0 2.0 8.0 1 1
+ 1.4 2 1 cbr 512 ------- 0 2.0 8.0 2 2
- 1.4 2 1 cbr 512 ------- 0 2.0 8.0 2 2
r 1.412048 2 1 cbr 512 ------- 0 2.0 8.0 2 2
+ 1.412048 1 0 cbr 512 ------- 0 2.0 8.0 2 2
- 1.412048 1 0 cbr 512 ------- 0 2.0 8.0 2 2
r 1.424096 1 0 cbr 512 ------- 0 2.0 8.0 2 2
+ 1.424096 0 3 cbr 512 ------- 0 2.0 8.0 2 2
- 1.424096 0 3 cbr 512 ------- 0 2.0 8.0 2 2
r 1.436144 0 3 cbr 512 ------- 0 2.0 8.0 2 2
+ 1.436144 3 4 cbr 512 ------- 0 2.0 8.0 2 2
- 1.436144 3 4 cbr 512 ------- 0 2.0 8.0 2 2
r 1.448192 3 4 cbr 512 ------- 0 2.0 8.0 2 2
+ 1.448192 4 5 cbr 512 ------- 0 2.0 8.0 2 2
- 1.448192 4 5 cbr 512 ------- 0 2.0 8.0 2 2
r 1.46024 4 5 cbr 512 ------- 0 2.0 8.0 2 2
+ 1.46024 5 6 cbr 512 ------- 0 2.0 8.0 2 2
- 1.46024 5 6 cbr 512 ------- 0 2.0 8.0 2 2
r 1.472288 5 6 cbr 512 ------- 0 2.0 8.0 2 2
+ 1.472288 6 7 cbr 512 ------- 0 2.0 8.0 2 2
- 1.472288 6 7 cbr 512 ------- 0 2.0 8.0 2 2
r 1.484336 6 7 cbr 512 ------- 0 2.0 8.0 2 2
+ 1.484336 7 9 cbr 512 ------- 0 2.0 8.0 2 2
- 1.484336 7 9 cbr 512 ------- 0 2.0 8.0 2 2
r 1.496384 7 9 cbr 512 ------- 0 2.0 8.0 2 2
+ 1.496384 9 8 cbr 512 ------- 0 2.0 8.0 2 2
- 1.496384 9 8 cbr 512 ------- 0 2.0 8.0 2 2
r 1.508432 9 8 cbr 512 ------- 0 2.0 8.0 2 2
+ 1.6 2 1 cbr 512 ------- 0 2.0 8.0 3 3
- 1.6 2 1 cbr 512 ------- 0 2.0 8.0 3 3
r 1.612048 2 1 cbr 512 ------- 0 2.0 8.0 3 3
+ 1.612048 1 0 cbr 512 ------- 0 2.0 8.0 3 3
- 1.612048 1 0 cbr 512 ------- 0 2.0 8.0 3 3
r 1.624096 1 0 cbr 512 ------- 0 2.0 8.0 3 3
+ 1.624096 0 3 cbr 512 ------- 0 2.0 8.0 3 3
- 1.624096 0 3 cbr 512 ------- 0 2.0 8.0 3 3
r 1.636144 0 3 cbr 512 ------- 0 2.0 8.0 3 3
+ 1.636144 3 4 cbr 512 ------- 0 2.0 8.0 3 3
- 1.636144 3 4 cbr 512 ------- 0 2.0 8.0 3 3
r 1.648192 3 4 cbr 512 ------- 0 2.0 8.0 3 3
+ 1.648192 4 5 cbr 512 ------- 0 2.0 8.0 3 3
- 1.648192 4 5 cbr 512 ------- 0 2.0 8.0 3 3
r 1.66024 4 5 cbr 512 ------- 0 2.0 8.0 3 3
+ 1.66024 5 6 cbr 512 ------- 0 2.0 8.0 3 3
- 1.66024 5 6 cbr 512 ------- 0 2.0 8.0 3 3
r 1.672288 5 6 cbr 512 ------- 0 2.0 8.0 3 3
+ 1.672288 6 7 cbr 512 ------- 0 2.0 8.0 3 3
- 1.672288 6 7 cbr 512 ------- 0 2.0 8.0 3 3
r 1.684336 6 7 cbr 512 ------- 0 2.0 8.0 3 3
+ 1.684336 7 9 cbr 512 ------- 0 2.0 8.0 3 3
- 1.684336 7 9 cbr 512 ------- 0 2.0 8.0 3 3
r 1.696384 7 9 cbr 512 ------- 0 2.0 8.0 3 3
+ 1.696384 9 8 cbr 512 ------- 0 2.0 8.0 3 3
- 1.696384 9 8 cbr 512 ------- 0 2.0 8.0 3 3
r 1.708432 9 8 cbr 512 ------- 0 2.0 8.0 3 3
+ 1.8 2 1 cbr 512 ------- 0 2.0 8.0 4 4
- 1.8 2 1 cbr 512 ------- 0 2.0 8.0 4 4
r 1.812048 2 1 cbr 512 ------- 0 2.0 8.0 4 4
+ 1.812048 1 0 cbr 512 ------- 0 2.0 8.0 4 4
- 1.812048 1 0 cbr 512 ------- 0 2.0 8.0 4 4
r 1.824096 1 0 cbr 512 ------- 0 2.0 8.0 4 4
+ 1.824096 0 3 cbr 512 ------- 0 2.0 8.0 4 4
- 1.824096 0 3 cbr 512 ------- 0 2.0 8.0 4 4
r 1.836144 0 3 cbr 512 ------- 0 2.0 8.0 4 4
+ 1.836144 3 4 cbr 512 ------- 0 2.0 8.0 4 4
- 1.836144 3 4 cbr 512 ------- 0 2.0 8.0 4 4
r 1.848192 3 4 cbr 512 ------- 0 2.0 8.0 4 4
+ 1.848192 4 5 cbr 512 ------- 0 2.0 8.0 4 4
- 1.848192 4 5 cbr 512 ------- 0 2.0 8.0 4 4
r 1.86024 4 5 cbr 512 ------- 0 2.0 8.0 4 4
+ 1.86024 5 6 cbr 512 ------- 0 2.0 8.0 4 4
- 1.86024 5 6 cbr 512 ------- 0 2.0 8.0 4 4
r 1.872288 5 6 cbr 512 ------- 0 2.0 8.0 4 4
+ 1.872288 6 7 cbr 512 ------- 0 2.0 8.0 4 4
- 1.872288 6 7 cbr 512 ------- 0 2.0 8.0 4 4
r 1.884336 6 7 cbr 512 ------- 0 2.0 8.0 4 4
+ 1.884336 7 9 cbr 512 ------- 0 2.0 8.0 4 4
- 1.884336 7 9 cbr 512 ------- 0 2.0 8.0 4 4
r 1.896384 7 9 cbr 512 ------- 0 2.0 8.0 4 4
+ 1.896384 9 8 cbr 512 ------- 0 2.0 8.0 4 4
- 1.896384 9 8 cbr 512 ------- 0 2.0 8.0 4 4
r 1.908432 9 8 cbr 512 ------- 0 2.0 8.0 4 4
+ 2 2 1 cbr 512 ------- 0 2.0 8.0 5 5
- 2 2 1 cbr 512 ------- 0 2.0 8.0 5 5
r 2.012048 2 1 cbr 512 ------- 0 2.0 8.0 5 5
+ 2.012048 1 0 cbr 512 ------- 0 2.0 8.0 5 5
- 2.012048 1 0 cbr 512 ------- 0 2.0 8.0 5 5
r 2.024096 1 0 cbr 512 ------- 0 2.0 8.0 5 5
+ 2.024096 0 3 cbr 512 ------- 0 2.0 8.0 5 5
- 2.024096 0 3 cbr 512 ------- 0 2.0 8.0 5 5
r 2.036144 0 3 cbr 512 ------- 0 2.0 8.0 5 5
+ 2.036144 3 4 cbr 512 ------- 0 2.0 8.0 5 5
- 2.036144 3 4 cbr 512 ------- 0 2.0 8.0 5 5
r 2.048192 3 4 cbr 512 ------- 0 2.0 8.0 5 5
+ 2.048192 4 5 cbr 512 ------- 0 2.0 8.0 5 5
- 2.048192 4 5 cbr 512 ------- 0 2.0 8.0 5 5
r 2.06024 4 5 cbr 512 ------- 0 2.0 8.0 5 5
+ 2.06024 5 6 cbr 512 ------- 0 2.0 8.0 5 5
- 2.06024 5 6 cbr 512 ------- 0 2.0 8.0 5 5
r 2.072288 5 6 cbr 512 ------- 0 2.0 8.0 5 5
+ 2.072288 6 7 cbr 512 ------- 0 2.0 8.0 5 5
- 2.072288 6 7 cbr 512 ------- 0 2.0 8.0 5 5
r 2.084336 6 7 cbr 512 ------- 0 2.0 8.0 5 5
+ 2.084336 7 9 cbr 512 ------- 0 2.0 8.0 5 5
- 2.084336 7 9 cbr 512 ------- 0 2.0 8.0 5 5
r 2.096384 7 9 cbr 512 ------- 0 2.0 8.0 5 5
+ 2.096384 9 8 cbr 512 ------- 0 2.0 8.0 5 5
- 2.096384 9 8 cbr 512 ------- 0 2.0 8.0 5 5
r 2.108432 9 8 cbr 512 ------- 0 2.0 8.0 5 5
+ 2.2 2 1 cbr 512 ------- 0 2.0 8.0 6 6
- 2.2 2 1 cbr 512 ------- 0 2.0 8.0 6 6
r 2.212048 2 1 cbr 512 ------- 0 2.0 8.0 6 6
+ 2.212048 1 0 cbr 512 ------- 0 2.0 8.0 6 6
- 2.212048 1 0 cbr 512 ------- 0 2.0 8.0 6 6
r 2.224096 1 0 cbr 512 ------- 0 2.0 8.0 6 6
+ 2.224096 0 3 cbr 512 ------- 0 2.0 8.0 6 6
- 2.224096 0 3 cbr 512 ------- 0 2.0 8.0 6 6
r 2.236144 0 3 cbr 512 ------- 0 2.0 8.0 6 6
+ 2.236144 3 4 cbr 512 ------- 0 2.0 8.0 6 6
- 2.236144 3 4 cbr 512 ------- 0 2.0 8.0 6 6
r 2.248192 3 4 cbr 512 ------- 0 2.0 8.0 6 6
+ 2.248192 4 5 cbr 512 ------- 0 2.0 8.0 6 6
- 2.248192 4 5 cbr 512 ------- 0 2.0 8.0 6 6
r 2.26024 4 5 cbr 512 ------- 0 2.0 8.0 6 6
+ 2.26024 5 6 cbr 512 ------- 0 2.0 8.0 6 6
- 2.26024 5 6 cbr 512 ------- 0 2.0 8.0 6 6
r 2.272288 5 6 cbr 512 ------- 0 2.0 8.0 6 6
+ 2.272288 6 7 cbr 512 ------- 0 2.0 8.0 6 6
- 2.272288 6 7 cbr 512 ------- 0 2.0 8.0 6 6
r 2.284336 6 7 cbr 512 ------- 0 2.0 8.0 6 6
+ 2.284336 7 9 cbr 512 ------- 0 2.0 8.0 6 6
- 2.284336 7 9 cbr 512 ------- 0 2.0 8.0 6 6
r 2.296384 7 9 cbr 512 ------- 0 2.0 8.0 6 6
+ 2.296384 9 8 cbr 512 ------- 0 2.0 8.0 6 6
- 2.296384 9 8 cbr 512 ------- 0 2.0 8.0 6 6
r 2.308432 9 8 cbr 512 ------- 0 2.0 8.0 6 6
+ 2.4 2 1 cbr 512 ------- 0 2.0 8.0 7 7
- 2.4 2 1 cbr 512 ------- 0 2.0 8.0 7 7
r 2.412048 2 1 cbr 512 ------- 0 2.0 8.0 7 7
+ 2.412048 1 0 cbr 512 ------- 0 2.0 8.0 7 7
- 2.412048 1 0 cbr 512 ------- 0 2.0 8.0 7 7
r 2.424096 1 0 cbr 512 ------- 0 2.0 8.0 7 7
+ 2.424096 0 3 cbr 512 ------- 0 2.0 8.0 7 7
- 2.424096 0 3 cbr 512 ------- 0 2.0 8.0 7 7
r 2.436144 0 3 cbr 512 ------- 0 2.0 8.0 7 7
+ 2.436144 3 4 cbr 512 ------- 0 2.0 8.0 7 7
- 2.436144 3 4 cbr 512 ------- 0 2.0 8.0 7 7
r 2.448192 3 4 cbr 512 ------- 0 2.0 8.0 7 7
+ 2.448192 4 5 cbr 512 ------- 0 2.0 8.0 7 7
- 2.448192 4 5 cbr 512 ------- 0 2.0 8.0 7 7
r 2.46024 4 5 cbr 512 ------- 0 2.0 8.0 7 7
+ 2.46024 5 6 cbr 512 ------- 0 2.0 8.0 7 7
- 2.46024 5 6 cbr 512 ------- 0 2.0 8.0 7 7
r 2.472288 5 6 cbr 512 ------- 0 2.0 8.0 7 7
+ 2.472288 6 7 cbr 512 ------- 0 2.0 8.0 7 7
- 2.472288 6 7 cbr 512 ------- 0 2.0 8.0 7 7
r 2.484336 6 7 cbr 512 ------- 0 2.0 8.0 7 7
+ 2.484336 7 9 cbr 512 ------- 0 2.0 8.0 7 7
- 2.484336 7 9 cbr 512 ------- 0 2.0 8.0 7 7
r 2.496384 7 9 cbr 512 ------- 0 2.0 8.0 7 7
+ 2.496384 9 8 cbr 512 ------- 0 2.0 8.0 7 7
- 2.496384 9 8 cbr 512 ------- 0 2.0 8.0 7 7
r 2.508432 9 8 cbr 512 ------- 0 2.0 8.0 7 7
+ 2.6 2 1 cbr 512 ------- 0 2.0 8.0 8 8
- 2.6 2 1 cbr 512 ------- 0 2.0 8.0 8 8
r 2.612048 2 1 cbr 512 ------- 0 2.0 8.0 8 8
+ 2.612048 1 0 cbr 512 ------- 0 2.0 8.0 8 8
- 2.612048 1 0 cbr 512 ------- 0 2.0 8.0 8 8
r 2.624096 1 0 cbr 512 ------- 0 2.0 8.0 8 8
+ 2.624096 0 3 cbr 512 ------- 0 2.0 8.0 8 8
- 2.624096 0 3 cbr 512 ------- 0 2.0 8.0 8 8
r 2.636144 0 3 cbr 512 ------- 0 2.0 8.0 8 8
+ 2.636144 3 4 cbr 512 ------- 0 2.0 8.0 8 8
- 2.636144 3 4 cbr 512 ------- 0 2.0 8.0 8 8
r 2.648192 3 4 cbr 512 ------- 0 2.0 8.0 8 8
+ 2.648192 4 5 cbr 512 ------- 0 2.0 8.0 8 8
- 2.648192 4 5 cbr 512 ------- 0 2.0 8.0 8 8
r 2.66024 4 5 cbr 512 ------- 0 2.0 8.0 8 8
+ 2.66024 5 6 cbr 512 ------- 0 2.0 8.0 8 8
- 2.66024 5 6 cbr 512 ------- 0 2.0 8.0 8 8
r 2.672288 5 6 cbr 512 ------- 0 2.0 8.0 8 8
+ 2.672288 6 7 cbr 512 ------- 0 2.0 8.0 8 8
- 2.672288 6 7 cbr 512 ------- 0 2.0 8.0 8 8
r 2.684336 6 7 cbr 512 ------- 0 2.0 8.0 8 8
+ 2.684336 7 9 cbr 512 ------- 0 2.0 8.0 8 8
- 2.684336 7 9 cbr 512 ------- 0 2.0 8.0 8 8
r 2.696384 7 9 cbr 512 ------- 0 2.0 8.0 8 8
+ 2.696384 9 8 cbr 512 ------- 0 2.0 8.0 8 8
- 2.696384 9 8 cbr 512 ------- 0 2.0 8.0 8 8
r 2.708432 9 8 cbr 512 ------- 0 2.0 8.0 8 8
+ 2.8 2 1 cbr 512 ------- 0 2.0 8.0 9 9
- 2.8 2 1 cbr 512 ------- 0 2.0 8.0 9 9
r 2.812048 2 1 cbr 512 ------- 0 2.0 8.0 9 9
+ 2.812048 1 0 cbr 512 ------- 0 2.0 8.0 9 9
- 2.812048 1 0 cbr 512 ------- 0 2.0 8.0 9 9
r 2.824096 1 0 cbr 512 ------- 0 2.0 8.0 9 9
+ 2.824096 0 3 cbr 512 ------- 0 2.0 8.0 9 9
- 2.824096 0 3 cbr 512 ------- 0 2.0 8.0 9 9
r 2.836144 0 3 cbr 512 ------- 0 2.0 8.0 9 9
+ 2.836144 3 4 cbr 512 ------- 0 2.0 8.0 9 9
- 2.836144 3 4 cbr 512 ------- 0 2.0 8.0 9 9
r 2.848192 3 4 cbr 512 ------- 0 2.0 8.0 9 9
+ 2.848192 4 5 cbr 512 ------- 0 2.0 8.0 9 9
- 2.848192 4 5 cbr 512 ------- 0 2.0 8.0 9 9
r 2.86024 4 5 cbr 512 ------- 0 2.0 8.0 9 9
+ 2.86024 5 6 cbr 512 ------- 0 2.0 8.0 9 9
- 2.86024 5 6 cbr 512 ------- 0 2.0 8.0 9 9
r 2.872288 5 6 cbr 512 ------- 0 2.0 8.0 9 9
+ 2.872288 6 7 cbr 512 ------- 0 2.0 8.0 9 9
- 2.872288 6 7 cbr 512 ------- 0 2.0 8.0 9 9
r 2.884336 6 7 cbr 512 ------- 0 2.0 8.0 9 9
+ 2.884336 7 9 cbr 512 ------- 0 2.0 8.0 9 9
- 2.884336 7 9 cbr 512 ------- 0 2.0 8.0 9 9
r 2.896384 7 9 cbr 512 ------- 0 2.0 8.0 9 9
+ 2.896384 9 8 cbr 512 ------- 0 2.0 8.0 9 9
- 2.896384 9 8 cbr 512 ------- 0 2.0 8.0 9 9
r 2.908432 9 8 cbr 512 ------- 0 2.0 8.0 9 9
+ 3 2 1 cbr 512 ------- 0 2.0 8.0 10 10
- 3 2 1 cbr 512 ------- 0 2.0 8.0 10 10
r 3.012048 2 1 cbr 512 ------- 0 2.0 8.0 10 10
+ 3.012048 1 0 cbr 512 ------- 0 2.0 8.0 10 10
- 3.012048 1 0 cbr 512 ------- 0 2.0 8.0 10 10
r 3.024096 1 0 cbr 512 ------- 0 2.0 8.0 10 10
+ 3.024096 0 3 cbr 512 ------- 0 2.0 8.0 10 10
- 3.024096 0 3 cbr 512 ------- 0 2.0 8.0 10 10
r 3.036144 0 3 cbr 512 ------- 0 2.0 8.0 10 10
+ 3.036144 3 4 cbr 512 ------- 0 2.0 8.0 10 10
- 3.036144 3 4 cbr 512 ------- 0 2.0 8.0 10 10
r 3.048192 3 4 cbr 512 ------- 0 2.0 8.0 10 10
+ 3.048192 4 5 cbr 512 ------- 0 2.0 8.0 10 10
- 3.048192 4 5 cbr 512 ------- 0 2.0 8.0 10 10
r 3.06024 4 5 cbr 512 ------- 0 2.0 8.0 10 10
+ 3.06024 5 6 cbr 512 ------- 0 2.0 8.0 10 10
- 3.06024 5 6 cbr 512 ------- 0 2.0 8.0 10 10
r 3.072288 5 6 cbr 512 ------- 0 2.0 8.0 10 10
+ 3.072288 6 7 cbr 512 ------- 0 2.0 8.0 10 10
- 3.072288 6 7 cbr 512 ------- 0 2.0 8.0 10 10
r 3.084336 6 7 cbr 512 ------- 0 2.0 8.0 10 10
+ 3.084336 7 9 cbr 512 ------- 0 2.0 8.0 10 10
- 3.084336 7 9 cbr 512 ------- 0 2.0 8.0 10 10
r 3.096384 7 9 cbr 512 ------- 0 2.0 8.0 10 10
+ 3.096384 9 8 cbr 512 ------- 0 2.0 8.0 10 10
- 3.096384 9 8 cbr 512 ------- 0 2.0 8.0 10 10
r 3.108432 9 8 cbr 512 ------- 0 2.0 8.0 10 10
+ 3.2 2 1 cbr 512 ------- 0 2.0 8.0 11 11
- 3.2 2 1 cbr 512 ------- 0 2.0 8.0 11 11
r 3.212048 2 1 cbr 512 ------- 0 2.0 8.0 11 11
+ 3.212048 1 0 cbr 512 ------- 0 2.0 8.0 11 11
- 3.212048 1 0 cbr 512 ------- 0 2.0 8.0 11 11
r 3.224096 1 0 cbr 512 ------- 0 2.0 8.0 11 11
+ 3.224096 0 3 cbr 512 ------- 0 2.0 8.0 11 11
- 3.224096 0 3 cbr 512 ------- 0 2.0 8.0 11 11
r 3.236144 0 3 cbr 512 ------- 0 2.0 8.0 11 11
+ 3.236144 3 4 cbr 512 ------- 0 2.0 8.0 11 11
- 3.236144 3 4 cbr 512 ------- 0 2.0 8.0 11 11
r 3.248192 3 4 cbr 512 ------- 0 2.0 8.0 11 11
+ 3.248192 4 5 cbr 512 ------- 0 2.0 8.0 11 11
- 3.248192 4 5 cbr 512 ------- 0 2.0 8.0 11 11
r 3.26024 4 5 cbr 512 ------- 0 2.0 8.0 11 11
+ 3.26024 5 6 cbr 512 ------- 0 2.0 8.0 11 11
- 3.26024 5 6 cbr 512 ------- 0 2.0 8.0 11 11
r 3.272288 5 6 cbr 512 ------- 0 2.0 8.0 11 11
+ 3.272288 6 7 cbr 512 ------- 0 2.0 8.0 11 11
- 3.272288 6 7 cbr 512 ------- 0 2.0 8.0 11 11
r 3.284336 6 7 cbr 512 ------- 0 2.0 8.0 11 11
+ 3.284336 7 9 cbr 512 ------- 0 2.0 8.0 11 11
- 3.284336 7 9 cbr 512 ------- 0 2.0 8.0 11 11
r 3.296384 7 9 cbr 512 ------- 0 2.0 8.0 11 11
+ 3.296384 9 8 cbr 512 ------- 0 2.0 8.0 11 11
- 3.296384 9 8 cbr 512 ------- 0 2.0 8.0 11 11
r 3.308432 9 8 cbr 512 ------- 0 2.0 8.0 11 11
+ 3.4 2 1 cbr 512 ------- 0 2.0 8.0 12 12
- 3.4 2 1 cbr 512 ------- 0 2.0 8.0 12 12
r 3.412048 2 1 cbr 512 ------- 0 2.0 8.0 12 12
+ 3.412048 1 0 cbr 512 ------- 0 2.0 8.0 12 12
- 3.412048 1 0 cbr 512 ------- 0 2.0 8.0 12 12
r 3.424096 1 0 cbr 512 ------- 0 2.0 8.0 12 12
+ 3.424096 0 3 cbr 512 ------- 0 2.0 8.0 12 12
- 3.424096 0 3 cbr 512 ------- 0 2.0 8.0 12 12
r 3.436144 0 3 cbr 512 ------- 0 2.0 8.0 12 12
+ 3.436144 3 4 cbr 512 ------- 0 2.0 8.0 12 12
- 3.436144 3 4 cbr 512 ------- 0 2.0 8.0 12 12
r 3.448192 3 4 cbr 512 ------- 0 2.0 8.0 12 12
+ 3.448192 4 5 cbr 512 ------- 0 2.0 8.0 12 12
- 3.448192 4 5 cbr 512 ------- 0 2.0 8.0 12 12
r 3.46024 4 5 cbr 512 ------- 0 2.0 8.0 12 12
+ 3.46024 5 6 cbr 512 ------- 0 2.0 8.0 12 12
- 3.46024 5 6 cbr 512 ------- 0 2.0 8.0 12 12
r 3.472288 5 6 cbr 512 ------- 0 2.0 8.0 12 12
+ 3.472288 6 7 cbr 512 ------- 0 2.0 8.0 12 12
- 3.472288 6 7 cbr 512 ------- 0 2.0 8.0 12 12
r 3.484336 6 7 cbr 512 ------- 0 2.0 8.0 12 12
+ 3.484336 7 9 cbr 512 ------- 0 2.0 8.0 12 12
- 3.484336 7 9 cbr 512 ------- 0 2.0 8.0 12 12
r 3.496384 7 9 cbr 512 ------- 0 2.0 8.0 12 12
+ 3.496384 9 8 cbr 512 ------- 0 2.0 8.0 12 12
- 3.496384 9 8 cbr 512 ------- 0 2.0 8.0 12 12
r 3.508432 9 8 cbr 512 ------- 0 2.0 8.0 12 12
+ 3.6 2 1 cbr 512 ------- 0 2.0 8.0 13 13
- 3.6 2 1 cbr 512 ------- 0 2.0 8.0 13 13
r 3.612048 2 1 cbr 512 ------- 0 2.0 8.0 13 13
+ 3.612048 1 0 cbr 512 ------- 0 2.0 8.0 13 13
- 3.612048 1 0 cbr 512 ------- 0 2.0 8.0 13 13
r 3.624096 1 0 cbr 512 ------- 0 2.0 8.0 13 13
+ 3.624096 0 3 cbr 512 ------- 0 2.0 8.0 13 13
- 3.624096 0 3 cbr 512 ------- 0 2.0 8.0 13 13
r 3.636144 0 3 cbr 512 ------- 0 2.0 8.0 13 13
+ 3.636144 3 4 cbr 512 ------- 0 2.0 8.0 13 13
- 3.636144 3 4 cbr 512 ------- 0 2.0 8.0 13 13
r 3.648192 3 4 cbr 512 ------- 0 2.0 8.0 13 13
+ 3.648192 4 5 cbr 512 ------- 0 2.0 8.0 13 13
- 3.648192 4 5 cbr 512 ------- 0 2.0 8.0 13 13
r 3.66024 4 5 cbr 512 ------- 0 2.0 8.0 13 13
+ 3.66024 5 6 cbr 512 ------- 0 2.0 8.0 13 13
- 3.66024 5 6 cbr 512 ------- 0 2.0 8.0 13 13
r 3.672288 5 6 cbr 512 ------- 0 2.0 8.0 13 13
+ 3.672288 6 7 cbr 512 ------- 0 2.0 8.0 13 13
- 3.672288 6 7 cbr 512 ------- 0 2.0 8.0 13 13
r 3.684336 6 7 cbr 512 ------- 0 2.0 8.0 13 13
+ 3.684336 7 9 cbr 512 ------- 0 2.0 8.0 13 13
- 3.684336 7 9 cbr 512 ------- 0 2.0 8.0 13 13
r 3.696384 7 9 cbr 512 ------- 0 2.0 8.0 13 13
+ 3.696384 9 8 cbr 512 ------- 0 2.0 8.0 13 13
- 3.696384 9 8 cbr 512 ------- 0 2.0 8.0 13 13
r 3.708432 9 8 cbr 512 ------- 0 2.0 8.0 13 13
+ 3.8 2 1 cbr 512 ------- 0 2.0 8.0 14 14
- 3.8 2 1 cbr 512 ------- 0 2.0 8.0 14 14
r 3.812048 2 1 cbr 512 ------- 0 2.0 8.0 14 14
+ 3.812048 1 0 cbr 512 ------- 0 2.0 8.0 14 14
- 3.812048 1 0 cbr 512 ------- 0 2.0 8.0 14 14
r 3.824096 1 0 cbr 512 ------- 0 2.0 8.0 14 14
+ 3.824096 0 3 cbr 512 ------- 0 2.0 8.0 14 14
- 3.824096 0 3 cbr 512 ------- 0 2.0 8.0 14 14
r 3.836144 0 3 cbr 512 ------- 0 2.0 8.0 14 14
+ 3.836144 3 4 cbr 512 ------- 0 2.0 8.0 14 14
- 3.836144 3 4 cbr 512 ------- 0 2.0 8.0 14 14
r 3.848192 3 4 cbr 512 ------- 0 2.0 8.0 14 14
+ 3.848192 4 5 cbr 512 ------- 0 2.0 8.0 14 14
- 3.848192 4 5 cbr 512 ------- 0 2.0 8.0 14 14
r 3.86024 4 5 cbr 512 ------- 0 2.0 8.0 14 14
+ 3.86024 5 6 cbr 512 ------- 0 2.0 8.0 14 14
- 3.86024 5 6 cbr 512 ------- 0 2.0 8.0 14 14
r 3.872288 5 6 cbr 512 ------- 0 2.0 8.0 14 14
+ 3.872288 6 7 cbr 512 ------- 0 2.0 8.0 14 14
- 3.872288 6 7 cbr 512 ------- 0 2.0 8.0 14 14
r 3.884336 6 7 cbr 512 ------- 0 2.0 8.0 14 14
+ 3.884336 7 9 cbr 512 ------- 0 2.0 8.0 14 14
- 3.884336 7 9 cbr 512 ------- 0 2.0 8.0 14 14
r 3.896384 7 9 cbr 512 ------- 0 2.0 8.0 14 14
+ 3.896384 9 8 cbr 512 ------- 0 2.0 8.0 14 14
- 3.896384 9 8 cbr 512 ------- 0 2.0 8.0 14 14
r 3.908432 9 8 cbr 512 ------- 0 2.0 8.0 14 14
